nqpoint: 4      
natom:   12     
reciprocal_lattice:
- [   0.22250634,  -0.12808590,   0.00000000 ] # a*
- [   0.00000000,   0.25617179,   0.00000000 ] # b*
- [   0.00000000,   0.00000000,   0.13617662 ] # c*
phonon:
- q-position: [    0.0000000,    0.0000000,    0.0000000 ]
  dynamical_matrix:
  - [    0.2998049809,   -0.0000000000,    0.0000000000,    0.0000000000,    0.0000000000,    0.0000000000,   -0.4888269078,    0.0000000000,   -0.0000000000,    0.0000000000,    0.0000000000,    0.0000000000,   -0.5101936086,    0.0000000000,    0.0000000000,    0.0000000000,   -0.0000000000,    0.0000000000,   -0.1807676448,    0.0000000000,   -0.0000000000,    0.0000000000,    0.0000000000,    0.0000000000,    0.2049640065,    0.0000000000,   -0.3276410427,    0.0000000000,    0.1913564241,    0.0000000000,    0.2049640065,    0.0000000000,    0.3276410427,    0.0000000000,   -0.1913564241,    0.0000000000,    0.0009480772,    0.0000000000,    0.0000000000,    0.0000000000,   -0.0000000000,    0.0000000000,   -0.0098008077,    0.0000000000,   -0.0000000000,    0.0000000000,   -0.0000000000,    0.0000000000,   -0.0059611673,    0.0000000000,   -0.0000000000,    0.0000000000,   -0.0000000000,    0.0000000000,    0.0346264282,    0.0000000000,   -0.0000000000,    0.0000000000,   -0.0000000000,    0.0000000000,   -0.0056632010,    0.0000000000,   -0.0030270934,    0.0000000000,   -0.0248707888,    0.0000000000,   -0.0056632010,    0.0000000000,    0.0030270934,    0.0000000000,    0.0248707888,    0.0000000000 ]
  - [    0.0000000000,   -0.0000000000,    2.9574698891,   -0.0000000000,    0.6221222947,    0.0000000000,   -0.0000000000,    0.0000000000,   -1.3217349491,    0.0000000000,   -0.4647923339,    0.0000000000,   -0.0000000000,    0.0000000000,   -9.5797803522,    0.0000000000,   -1.6260994865,    0.0000000000,   -0.0000000000,    0.0000000000,   -0.1973042673,    0.0000000000,   -0.0006808668,    0.0000000000,   -0.3957718845,    0.0000000000,   -0.1083879380,    0.0000000000,   -0.1649526457,    0.0000000000,    0.3957718845,    0.0000000000,   -0.1083879380,    0.0000000000,   -0.1649526457,    0.0000000000,    0.0000000000,    0.0000000000,    0.0014295120,    0.0000000000,    0.0098815625,    0.0000000000,    0.0000000000,    0.0000000000,   -0.0054120860,    0.0000000000,    0.0038100940,    0.0000000000,   -0.0000000000,    0.0000000000,   -0.0034089194,    0.0000000000,   -0.0250941717,    0.0000000000,   -0.0000000000,    0.0000000000,    0.0200322383,    0.0000000000,   -0.0290888743,    0.0000000000,   -0.0391814867,    0.0000000000,    0.0226947307,    0.0000000000,    0.0212377366,    0.0000000000,    0.0391814867,    0.0000000000,    0.0226947307,    0.0000000000,    0.0212377366,    0.0000000000 ]
  - [    0.0000000000,   -0.0000000000,    0.6221222947,   -0.0000000000,    3.3705756246,   -0.0000000000,    0.0000000000,    0.0000000000,    0.6249706758,    0.0000000000,  -10.5164715950,    0.0000000000,   -0.0000000000,    0.0000000000,   -2.7816076044,    0.0000000000,   -1.9446349791,    0.0000000000,   -0.0000000000,    0.0000000000,   -0.0115856517,    0.0000000000,    0.0523848768,    0.0000000000,    0.1017228869,    0.0000000000,   -0.0916602258,    0.0000000000,   -0.2676740339,    0.0000000000,   -0.1017228869,    0.0000000000,   -0.0916602258,    0.0000000000,   -0.2676740339,    0.0000000000,    0.0000000000,    0.0000000000,   -0.0098815625,    0.0000000000,   -0.0273233569,    0.0000000000,   -0.0000000000,    0.0000000000,   -0.0091929268,    0.0000000000,    0.1000853786,    0.0000000000,    0.0000000000,    0.0000000000,   -0.0764269328,    0.0000000000,    0.0696927134,    0.0000000000,   -0.0000000000,    0.0000000000,   -0.0274474302,    0.0000000000,   -0.1871417849,    0.0000000000,   -0.1361909802,    0.0000000000,    0.0709765956,    0.0000000000,    0.0221973912,    0.0000000000,    0.1361909802,    0.0000000000,    0.0709765956,    0.0000000000,    0.0221973912,    0.0000000000 ]
  - [   -0.4888269078,   -0.0000000000,   -0.0000000000,   -0.0000000000,    0.0000000000,   -0.0000000000,    2.9528662732,   -0.0000000000,    0.0000000000,    0.0000000000,   -0.0000000000,    0.0000000000,   -0.0900992973,    0.0000000000,   -0.0000000000,    0.0000000000,   -0.0000000000,    0.0000000000,   -0.0823509181,    0.0000000000,    0.0000000000,    0.0000000000,    0.0000000000,    0.0000000000,    0.1508551895,    0.0000000000,   -0.1056292140,    0.0000000000,   -0.3131237478,    0.0000000000,    0.1508551895,    0.0000000000,    0.1056292140,    0.0000000000,    0.3131237478,    0.0000000000,   -0.0098008077,    0.0000000000,    0.0000000000,    0.0000000000,    0.0000000000,    0.0000000000,   -0.0150674532,    0.0000000000,   -0.0000000000,    0.0000000000,   -0.0000000000,    0.0000000000,    0.0276218318,    0.0000000000,    0.0000000000,    0.0000000000,    0.0000000000,    0.0000000000,   -0.2721921879,    0.0000000000,   -0.0000000000,    0.0000000000,    0.0000000000,    0.0000000000,    0.1111183507,    0.0000000000,   -0.0173768177,    0.0000000000,    0.3608208174,    0.0000000000,    0.1111183507,    0.0000000000,    0.0173768177,    0.0000000000,   -0.3608208174,    0.0000000000 ]
  - [   -0.0000000000,   -0.0000000000,   -1.3217349491,   -0.0000000000,    0.6249706758,   -0.0000000000,    0.0000000000,   -0.0000000000,    6.1712811347,   -0.0000000000,    1.1589290125,    0.0000000000,   -0.0000000000,    0.0000000000,    0.0256024508,    0.0000000000,   -4.2140927107,    0.0000000000,    0.0000000000,    0.0000000000,   -0.1151931472,    0.0000000000,    0.0352272009,    0.0000000000,    0.0573119077,    0.0000000000,    0.1620652447,    0.0000000000,    0.1497436306,    0.0000000000,   -0.0573119077,    0.0000000000,    0.1620652447,    0.0000000000,    0.1497436306,    0.0000000000,   -0.0000000000,    0.0000000000,   -0.0054120860,    0.0000000000,    0.0091929268,    0.0000000000,   -0.0000000000,    0.0000000000,   -0.0193225359,    0.0000000000,   -0.0816508514,    0.0000000000,    0.0000000000,    0.0000000000,    0.0285911815,    0.0000000000,    0.0907993928,    0.0000000000,    0.0000000000,    0.0000000000,   -0.1960579177,    0.0000000000,    0.1373882391,    0.0000000000,    0.0351968216,    0.0000000000,   -0.0014556311,    0.0000000000,   -0.2336939437,    0.0000000000,   -0.0351968216,    0.0000000000,   -0.0014556311,    0.0000000000,   -0.2336939437,    0.0000000000 ]
  - [    0.0000000000,   -0.0000000000,   -0.4647923339,   -0.0000000000,  -10.5164715950,   -0.0000000000,   -0.0000000000,   -0.0000000000,    1.1589290125,   -0.0000000000,   42.2965229300,   -0.0000000000,    0.0000000000,    0.0000000000,    0.0692632103,    0.0000000000,   -1.1566139404,    0.0000000000,   -0.0000000000,    0.0000000000,    0.0199168139,    0.0000000000,    0.1671900027,    0.0000000000,   -0.1532796042,    0.0000000000,    0.1752176962,    0.0000000000,   -0.2478461009,    0.0000000000,    0.1532796042,    0.0000000000,    0.1752176962,    0.0000000000,   -0.2478461009,    0.0000000000,    0.0000000000,    0.0000000000,   -0.0038100940,    0.0000000000,    0.1000853786,    0.0000000000,    0.0000000000,    0.0000000000,    0.0816508514,    0.0000000000,   -0.7384760438,    0.0000000000,    0.0000000000,    0.0000000000,    0.5523363760,    0.0000000000,   -0.1794960210,    0.0000000000,    0.0000000000,    0.0000000000,    0.1121893526,    0.0000000000,    0.3167340965,    0.0000000000,    0.6493036580,    0.0000000000,   -0.4359917328,    0.0000000000,   -0.0785928512,    0.0000000000,   -0.6493036580,    0.0000000000,   -0.4359917328,    0.0000000000,   -0.0785928512,    0.0000000000 ]
  - [   -0.5101936086,   -0.0000000000,   -0.0000000000,   -0.0000000000,   -0.0000000000,   -0.0000000000,   -0.0900992973,   -0.0000000000,   -0.0000000000,   -0.0000000000,    0.0000000000,   -0.0000000000,    3.0179329161,   -0.0000000000,    0.0000000000,    0.0000000000,    0.0000000000,    0.0000000000,   -0.3823337697,    0.0000000000,   -0.0000000000,    0.0000000000,    0.0000000000,    0.0000000000,    0.3019124606,    0.0000000000,    0.5977824875,    0.0000000000,    0.4149565033,    0.0000000000,    0.3019124606,    0.0000000000,   -0.5977824875,    0.0000000000,   -0.4149565033,    0.0000000000,   -0.0059611673,    0.0000000000,   -0.0000000000,    0.0000000000,   -0.0000000000,    0.0000000000,    0.0276218318,    0.0000000000,    0.0000000000,    0.0000000000,   -0.0000000000,    0.0000000000,    0.0310490313,    0.0000000000,    0.0000000000,    0.0000000000,    0.0000000000,    0.0000000000,   -0.0052631183,    0.0000000000,    0.0000000000,    0.0000000000,   -0.0000000000,    0.0000000000,    0.0055706428,    0.0000000000,    0.0173720945,    0.0000000000,   -0.0022792207,    0.0000000000,    0.0055706428,    0.0000000000,   -0.0173720945,    0.0000000000,    0.0022792207,    0.0000000000 ]
  - [    0.0000000000,   -0.0000000000,   -9.5797803522,   -0.0000000000,   -2.7816076044,   -0.0000000000,   -0.0000000000,   -0.0000000000,    0.0256024508,   -0.0000000000,    0.0692632103,   -0.0000000000,    0.0000000000,   -0.0000000000,   37.5541113296,   -0.0000000000,    9.6741301156,    0.0000000000,   -0.0000000000,    0.0000000000,    0.5017991587,    0.0000000000,    0.0903091137,    0.0000000000,    1.0733550945,    0.0000000000,   -0.7251545593,    0.0000000000,    0.4560842060,    0.0000000000,   -1.0733550945,    0.0000000000,   -0.7251545593,    0.0000000000,    0.4560842060,    0.0000000000,   -0.0000000000,    0.0000000000,   -0.0034089194,    0.0000000000,    0.0764269328,    0.0000000000,    0.0000000000,    0.0000000000,    0.0285911815,    0.0000000000,   -0.5523363760,    0.0000000000,    0.0000000000,    0.0000000000,    0.0258110223,    0.0000000000,   -0.0294297372,    0.0000000000,    0.0000000000,    0.0000000000,    0.0504147994,    0.0000000000,    0.1186462831,    0.0000000000,    0.1822627806,    0.0000000000,   -0.1027410527,    0.0000000000,   -0.0640477107,    0.0000000000,   -0.1822627806,    0.0000000000,   -0.1027410527,    0.0000000000,   -0.0640477107,    0.0000000000 ]
  - [   -0.0000000000,   -0.0000000000,   -1.6260994865,   -0.0000000000,   -1.9446349791,   -0.0000000000,   -0.0000000000,   -0.0000000000,   -4.2140927107,   -0.0000000000,   -1.1566139404,   -0.0000000000,    0.0000000000,   -0.0000000000,    9.6741301156,   -0.0000000000,    9.0645173379,   -0.0000000000,    0.0000000000,    0.0000000000,    0.2032828354,    0.0000000000,   -0.2817478136,    0.0000000000,    0.3075186539,    0.0000000000,    0.0595402325,    0.0000000000,    0.4951216006,    0.0000000000,   -0.3075186539,    0.0000000000,    0.0595402325,    0.0000000000,    0.4951216006,    0.0000000000,    0.0000000000,    0.0000000000,    0.0250941717,    0.0000000000,    0.0696927134,    0.0000000000,   -0.0000000000,    0.0000000000,   -0.0907993928,    0.0000000000,   -0.1794960210,    0.0000000000,   -0.0000000000,    0.0000000000,    0.0294297372,    0.0000000000,   -0.1430021537,    0.0000000000,    0.0000000000,    0.0000000000,    0.0130452008,    0.0000000000,    0.0074480491,    0.0000000000,    0.0804286228,    0.0000000000,   -0.0008351496,    0.0000000000,   -0.0064553179,    0.0000000000,   -0.0804286228,    0.0000000000,   -0.0008351496,    0.0000000000,   -0.0064553179,    0.0000000000 ]
  - [   -0.1807676448,   -0.0000000000,   -0.0000000000,   -0.0000000000,   -0.0000000000,   -0.0000000000,   -0.0823509181,   -0.0000000000,    0.0000000000,   -0.0000000000,   -0.0000000000,   -0.0000000000,   -0.3823337697,   -0.0000000000,   -0.0000000000,   -0.0000000000,    0.0000000000,   -0.0000000000,    3.7971130998,   -0.0000000000,   -0.0000000000,    0.0000000000,    0.0000000000,    0.0000000000,   -6.9031515730,    0.0000000000,    4.0894771843,    0.0000000000,   -2.6481350189,    0.0000000000,   -6.9031515730,    0.0000000000,   -4.0894771843,    0.0000000000,    2.6481350189,    0.0000000000,    0.0346264282,    0.0000000000,   -0.0000000000,    0.0000000000,    0.0000000000,    0.0000000000,   -0.2721921879,    0.0000000000,    0.0000000000,    0.0000000000,   -0.0000000000,    0.0000000000,   -0.0052631183,    0.0000000000,    0.0000000000,    0.0000000000,   -0.0000000000,    0.0000000000,    0.0067783207,    0.0000000000,    0.0000000000,    0.0000000000,   -0.0000000000,    0.0000000000,   -0.0105828344,    0.0000000000,    0.0049908973,    0.0000000000,   -0.0037996241,    0.0000000000,   -0.0105828344,    0.0000000000,   -0.0049908973,    0.0000000000,    0.0037996241,    0.0000000000 ]
  - [   -0.0000000000,   -0.0000000000,   -0.1973042673,   -0.0000000000,   -0.0115856517,   -0.0000000000,    0.0000000000,   -0.0000000000,   -0.1151931472,   -0.0000000000,    0.0199168139,   -0.0000000000,   -0.0000000000,   -0.0000000000,    0.5017991587,   -0.0000000000,    0.2032828354,   -0.0000000000,   -0.0000000000,   -0.0000000000,    1.8575098040,   -0.0000000000,   -0.9944427842,    0.0000000000,    3.1893570123,    0.0000000000,   -3.4648648778,    0.0000000000,    1.9015139104,    0.0000000000,   -3.1893570123,    0.0000000000,   -3.4648648778,    0.0000000000,    1.9015139104,    0.0000000000,   -0.0000000000,    0.0000000000,    0.0200322383,    0.0000000000,    0.0274474302,    0.0000000000,   -0.0000000000,    0.0000000000,   -0.1960579177,    0.0000000000,   -0.1121893526,    0.0000000000,    0.0000000000,    0.0000000000,    0.0504147994,    0.0000000000,   -0.0130452008,    0.0000000000,    0.0000000000,    0.0000000000,    0.0015890864,    0.0000000000,   -0.0127270643,    0.0000000000,    0.0048015033,    0.0000000000,   -0.0065029423,    0.0000000000,    0.0242496510,    0.0000000000,   -0.0048015033,    0.0000000000,   -0.0065029423,    0.0000000000,    0.0242496510,    0.0000000000 ]
  - [    0.0000000000,   -0.0000000000,   -0.0006808668,   -0.0000000000,    0.0523848768,   -0.0000000000,    0.0000000000,   -0.0000000000,    0.0352272009,   -0.0000000000,    0.1671900027,   -0.0000000000,    0.0000000000,   -0.0000000000,    0.0903091137,   -0.0000000000,   -0.2817478136,   -0.0000000000,    0.0000000000,   -0.0000000000,   -0.9944427842,   -0.0000000000,    1.0123128688,   -0.0000000000,   -2.1125894636,    0.0000000000,    1.9418747896,    0.0000000000,   -1.7981985804,    0.0000000000,    2.1125894636,    0.0000000000,    1.9418747896,    0.0000000000,   -1.7981985804,    0.0000000000,    0.0000000000,    0.0000000000,    0.0290888743,    0.0000000000,   -0.1871417849,    0.0000000000,   -0.0000000000,    0.0000000000,   -0.1373882391,    0.0000000000,    0.3167340965,    0.0000000000,    0.0000000000,    0.0000000000,   -0.1186462831,    0.0000000000,    0.0074480491,    0.0000000000,    0.0000000000,    0.0000000000,    0.0127270643,    0.0000000000,   -0.0612110731,    0.0000000000,   -0.0497071183,    0.0000000000,    0.0221554157,    0.0000000000,    0.0671666124,    0.0000000000,    0.0497071183,    0.0000000000,    0.0221554157,    0.0000000000,    0.0671666124,    0.0000000000 ]
  - [    0.2049640065,   -0.0000000000,   -0.3957718845,   -0.0000000000,    0.1017228869,   -0.0000000000,    0.1508551895,   -0.0000000000,    0.0573119077,   -0.0000000000,   -0.1532796042,   -0.0000000000,    0.3019124606,   -0.0000000000,    1.0733550945,   -0.0000000000,    0.3075186539,   -0.0000000000,   -6.9031515730,   -0.0000000000,    3.1893570123,   -0.0000000000,   -2.1125894636,   -0.0000000000,   29.3042519874,   -0.0000000000,  -13.9044521120,    0.0000000000,    8.9067556736,    0.0000000000,   -3.1365977501,    0.0000000000,    1.5854581159,    0.0000000000,   -1.0241426926,    0.0000000000,   -0.0056632010,    0.0000000000,   -0.0391814867,    0.0000000000,    0.1361909802,    0.0000000000,    0.1111183507,    0.0000000000,    0.0351968216,    0.0000000000,   -0.6493036580,    0.0000000000,    0.0055706428,    0.0000000000,    0.1822627806,    0.0000000000,   -0.0804286228,    0.0000000000,   -0.0105828344,    0.0000000000,    0.0048015033,    0.0000000000,    0.0497071183,    0.0000000000,    0.0629036319,    0.0000000000,   -0.0104245660,    0.0000000000,   -0.0172465169,    0.0000000000,   -0.0555911824,    0.0000000000,   -0.0085422415,    0.0000000000,   -0.0192841200,    0.0000000000 ]
  - [   -0.3276410427,   -0.0000000000,   -0.1083879380,   -0.0000000000,   -0.0916602258,   -0.0000000000,   -0.1056292140,   -0.0000000000,    0.1620652447,   -0.0000000000,    0.1752176962,   -0.0000000000,    0.5977824875,   -0.0000000000,   -0.7251545593,   -0.0000000000,    0.0595402325,   -0.0000000000,    4.0894771843,   -0.0000000000,   -3.4648648778,   -0.0000000000,    1.9418747896,   -0.0000000000,  -13.9044521120,   -0.0000000000,   13.5108163006,   -0.0000000000,   -6.7598947006,    0.0000000000,   -1.5854581159,    0.0000000000,    1.2898291166,    0.0000000000,   -0.8960464377,    0.0000000000,   -0.0030270934,    0.0000000000,    0.0226947307,    0.0000000000,   -0.0709765956,    0.0000000000,   -0.0173768177,    0.0000000000,   -0.0014556311,    0.0000000000,    0.4359917328,    0.0000000000,    0.0173720945,    0.0000000000,   -0.1027410527,    0.0000000000,    0.0008351496,    0.0000000000,    0.0049908973,    0.0000000000,   -0.0065029423,    0.0000000000,   -0.0221554157,    0.0000000000,   -0.0104245660,    0.0000000000,    0.0261880818,    0.0000000000,   -0.0138530630,    0.0000000000,    0.0085422415,    0.0000000000,    0.0145062388,    0.0000000000,   -0.0022187980,    0.0000000000 ]
  - [    0.1913564241,   -0.0000000000,   -0.1649526457,   -0.0000000000,   -0.2676740339,   -0.0000000000,   -0.3131237478,   -0.0000000000,    0.1497436306,   -0.0000000000,   -0.2478461009,   -0.0000000000,    0.4149565033,   -0.0000000000,    0.4560842060,   -0.0000000000,    0.4951216006,   -0.0000000000,   -2.6481350189,   -0.0000000000,    1.9015139104,   -0.0000000000,   -1.7981985804,   -0.0000000000,    8.9067556736,   -0.0000000000,   -6.7598947006,   -0.0000000000,    7.2864957358,   -0.0000000000,    1.0241426926,    0.0000000000,   -0.8960464377,    0.0000000000,    0.5940144136,    0.0000000000,    0.0248707888,    0.0000000000,   -0.0212377366,    0.0000000000,    0.0221973912,    0.0000000000,   -0.3608208174,    0.0000000000,    0.2336939437,    0.0000000000,   -0.0785928512,    0.0000000000,    0.0022792207,    0.0000000000,    0.0640477107,    0.0000000000,   -0.0064553179,    0.0000000000,    0.0037996241,    0.0000000000,   -0.0242496510,    0.0000000000,    0.0671666124,    0.0000000000,    0.0172465169,    0.0000000000,    0.0138530630,    0.0000000000,   -0.1133601750,    0.0000000000,   -0.0192841200,    0.0000000000,    0.0022187980,    0.0000000000,   -0.0545931625,    0.0000000000 ]
  - [    0.2049640065,   -0.0000000000,    0.3957718845,   -0.0000000000,   -0.1017228869,   -0.0000000000,    0.1508551895,   -0.0000000000,   -0.0573119077,   -0.0000000000,    0.1532796042,   -0.0000000000,    0.3019124606,   -0.0000000000,   -1.0733550945,   -0.0000000000,   -0.3075186539,   -0.0000000000,   -6.9031515730,   -0.0000000000,   -3.1893570123,   -0.0000000000,    2.1125894636,   -0.0000000000,   -3.1365977501,   -0.0000000000,   -1.5854581159,   -0.0000000000,    1.0241426926,   -0.0000000000,   29.3042519874,   -0.0000000000,   13.9044521120,    0.0000000000,   -8.9067556736,    0.0000000000,   -0.0056632010,    0.0000000000,    0.0391814867,    0.0000000000,   -0.1361909802,    0.0000000000,    0.1111183507,    0.0000000000,   -0.0351968216,    0.0000000000,    0.6493036580,    0.0000000000,    0.0055706428,    0.0000000000,   -0.1822627806,    0.0000000000,    0.0804286228,    0.0000000000,   -0.0105828344,    0.0000000000,   -0.0048015033,    0.0000000000,   -0.0497071183,    0.0000000000,   -0.0555911824,    0.0000000000,    0.0085422415,    0.0000000000,    0.0192841200,    0.0000000000,    0.0629036319,    0.0000000000,    0.0104245660,    0.0000000000,    0.0172465169,    0.0000000000 ]
  - [    0.3276410427,   -0.0000000000,   -0.1083879380,   -0.0000000000,   -0.0916602258,   -0.0000000000,    0.1056292140,   -0.0000000000,    0.1620652447,   -0.0000000000,    0.1752176962,   -0.0000000000,   -0.5977824875,   -0.0000000000,   -0.7251545593,   -0.0000000000,    0.0595402325,   -0.0000000000,   -4.0894771843,   -0.0000000000,   -3.4648648778,   -0.0000000000,    1.9418747896,   -0.0000000000,    1.5854581159,   -0.0000000000,    1.2898291166,   -0.0000000000,   -0.8960464377,   -0.0000000000,   13.9044521120,   -0.0000000000,   13.5108163006,   -0.0000000000,   -6.7598947006,    0.0000000000,    0.0030270934,    0.0000000000,    0.0226947307,    0.0000000000,   -0.0709765956,    0.0000000000,    0.0173768177,    0.0000000000,   -0.0014556311,    0.0000000000,    0.4359917328,    0.0000000000,   -0.0173720945,    0.0000000000,   -0.1027410527,    0.0000000000,    0.0008351496,    0.0000000000,   -0.0049908973,    0.0000000000,   -0.0065029423,    0.0000000000,   -0.0221554157,    0.0000000000,   -0.0085422415,    0.0000000000,    0.0145062388,    0.0000000000,   -0.0022187980,    0.0000000000,    0.0104245660,    0.0000000000,    0.0261880818,    0.0000000000,   -0.0138530630,    0.0000000000 ]
  - [   -0.1913564241,   -0.0000000000,   -0.1649526457,   -0.0000000000,   -0.2676740339,   -0.0000000000,    0.3131237478,   -0.0000000000,    0.1497436306,   -0.0000000000,   -0.2478461009,   -0.0000000000,   -0.4149565033,   -0.0000000000,    0.4560842060,   -0.0000000000,    0.4951216006,   -0.0000000000,    2.6481350189,   -0.0000000000,    1.9015139104,   -0.0000000000,   -1.7981985804,   -0.0000000000,   -1.0241426926,   -0.0000000000,   -0.8960464377,   -0.0000000000,    0.5940144136,   -0.0000000000,   -8.9067556736,   -0.0000000000,   -6.7598947006,   -0.0000000000,    7.2864957358,   -0.0000000000,   -0.0248707888,    0.0000000000,   -0.0212377366,    0.0000000000,    0.0221973912,    0.0000000000,    0.3608208174,    0.0000000000,    0.2336939437,    0.0000000000,   -0.0785928512,    0.0000000000,   -0.0022792207,    0.0000000000,    0.0640477107,    0.0000000000,   -0.0064553179,    0.0000000000,   -0.0037996241,    0.0000000000,   -0.0242496510,    0.0000000000,    0.0671666124,    0.0000000000,    0.0192841200,    0.0000000000,    0.0022187980,    0.0000000000,   -0.0545931625,    0.0000000000,   -0.0172465169,    0.0000000000,    0.0138530630,    0.0000000000,   -0.1133601750,    0.0000000000 ]
  - [    0.0009480772,   -0.0000000000,    0.0000000000,   -0.0000000000,    0.0000000000,   -0.0000000000,   -0.0098008077,   -0.0000000000,   -0.0000000000,   -0.0000000000,    0.0000000000,   -0.0000000000,   -0.0059611673,   -0.0000000000,   -0.0000000000,   -0.0000000000,    0.0000000000,   -0.0000000000,    0.0346264282,   -0.0000000000,   -0.0000000000,   -0.0000000000,    0.0000000000,   -0.0000000000,   -0.0056632010,   -0.0000000000,   -0.0030270934,   -0.0000000000,    0.0248707888,   -0.0000000000,   -0.0056632010,   -0.0000000000,    0.0030270934,   -0.0000000000,   -0.0248707888,   -0.0000000000,    0.2998049809,   -0.0000000000,    0.0000000000,    0.0000000000,   -0.0000000000,    0.0000000000,   -0.4888269078,    0.0000000000,   -0.0000000000,    0.0000000000,   -0.0000000000,    0.0000000000,   -0.5101936086,    0.0000000000,    0.0000000000,    0.0000000000,    0.0000000000,    0.0000000000,   -0.1807676448,    0.0000000000,   -0.0000000000,    0.0000000000,   -0.0000000000,    0.0000000000,    0.2049640065,    0.0000000000,   -0.3276410427,    0.0000000000,   -0.1913564241,    0.0000000000,    0.2049640065,    0.0000000000,    0.3276410427,    0.0000000000,    0.1913564241,    0.0000000000 ]
  - [    0.0000000000,   -0.0000000000,    0.0014295120,   -0.0000000000,   -0.0098815625,   -0.0000000000,    0.0000000000,   -0.0000000000,   -0.0054120860,   -0.0000000000,   -0.0038100940,   -0.0000000000,   -0.0000000000,   -0.0000000000,   -0.0034089194,   -0.0000000000,    0.0250941717,   -0.0000000000,   -0.0000000000,   -0.0000000000,    0.0200322383,   -0.0000000000,    0.0290888743,   -0.0000000000,   -0.0391814867,   -0.0000000000,    0.0226947307,   -0.0000000000,   -0.0212377366,   -0.0000000000,    0.0391814867,   -0.0000000000,    0.0226947307,   -0.0000000000,   -0.0212377366,   -0.0000000000,    0.0000000000,   -0.0000000000,    2.9574698891,   -0.0000000000,   -0.6221222947,    0.0000000000,   -0.0000000000,    0.0000000000,   -1.3217349491,    0.0000000000,    0.4647923339,    0.0000000000,   -0.0000000000,    0.0000000000,   -9.5797803522,    0.0000000000,    1.6260994865,    0.0000000000,   -0.0000000000,    0.0000000000,   -0.1973042673,    0.0000000000,    0.0006808668,    0.0000000000,   -0.3957718845,    0.0000000000,   -0.1083879380,    0.0000000000,    0.1649526457,    0.0000000000,    0.3957718845,    0.0000000000,   -0.1083879380,    0.0000000000,    0.1649526457,    0.0000000000 ]
  - [   -0.0000000000,   -0.0000000000,    0.0098815625,   -0.0000000000,   -0.0273233569,   -0.0000000000,    0.0000000000,   -0.0000000000,    0.0091929268,   -0.0000000000,    0.1000853786,   -0.0000000000,   -0.0000000000,   -0.0000000000,    0.0764269328,   -0.0000000000,    0.0696927134,   -0.0000000000,    0.0000000000,   -0.0000000000,    0.0274474302,   -0.0000000000,   -0.1871417849,   -0.0000000000,    0.1361909802,   -0.0000000000,   -0.0709765956,   -0.0000000000,    0.0221973912,   -0.0000000000,   -0.1361909802,   -0.0000000000,   -0.0709765956,   -0.0000000000,    0.0221973912,   -0.0000000000,   -0.0000000000,   -0.0000000000,   -0.6221222947,   -0.0000000000,    3.3705756246,   -0.0000000000,   -0.0000000000,    0.0000000000,   -0.6249706758,    0.0000000000,  -10.5164715950,    0.0000000000,    0.0000000000,    0.0000000000,    2.7816076044,    0.0000000000,   -1.9446349791,    0.0000000000,    0.0000000000,    0.0000000000,    0.0115856517,    0.0000000000,    0.0523848768,    0.0000000000,   -0.1017228869,    0.0000000000,    0.0916602258,    0.0000000000,   -0.2676740339,    0.0000000000,    0.1017228869,    0.0000000000,    0.0916602258,    0.0000000000,   -0.2676740339,    0.0000000000 ]
  - [   -0.0098008077,   -0.0000000000,    0.0000000000,   -0.0000000000,   -0.0000000000,   -0.0000000000,   -0.0150674532,   -0.0000000000,   -0.0000000000,   -0.0000000000,    0.0000000000,   -0.0000000000,    0.0276218318,   -0.0000000000,    0.0000000000,   -0.0000000000,   -0.0000000000,   -0.0000000000,   -0.2721921879,   -0.0000000000,   -0.0000000000,   -0.0000000000,   -0.0000000000,   -0.0000000000,    0.1111183507,   -0.0000000000,   -0.0173768177,   -0.0000000000,   -0.3608208174,   -0.0000000000,    0.1111183507,   -0.0000000000,    0.0173768177,   -0.0000000000,    0.3608208174,   -0.0000000000,   -0.4888269078,   -0.0000000000,   -0.0000000000,   -0.0000000000,   -0.0000000000,   -0.0000000000,    2.9528662732,   -0.0000000000,    0.0000000000,    0.0000000000,    0.0000000000,    0.0000000000,   -0.0900992973,    0.0000000000,   -0.0000000000,    0.0000000000,    0.0000000000,    0.0000000000,   -0.0823509181,    0.0000000000,    0.0000000000,    0.0000000000,   -0.0000000000,    0.0000000000,    0.1508551895,    0.0000000000,   -0.1056292140,    0.0000000000,    0.3131237478,    0.0000000000,    0.1508551895,    0.0000000000,    0.1056292140,    0.0000000000,   -0.3131237478,    0.0000000000 ]
  - [   -0.0000000000,   -0.0000000000,   -0.0054120860,   -0.0000000000,   -0.0091929268,   -0.0000000000,   -0.0000000000,   -0.0000000000,   -0.0193225359,   -0.0000000000,    0.0816508514,   -0.0000000000,    0.0000000000,   -0.0000000000,    0.0285911815,   -0.0000000000,   -0.0907993928,   -0.0000000000,    0.0000000000,   -0.0000000000,   -0.1960579177,   -0.0000000000,   -0.1373882391,   -0.0000000000,    0.0351968216,   -0.0000000000,   -0.0014556311,   -0.0000000000,    0.2336939437,   -0.0000000000,   -0.0351968216,   -0.0000000000,   -0.0014556311,   -0.0000000000,    0.2336939437,   -0.0000000000,   -0.0000000000,   -0.0000000000,   -1.3217349491,   -0.0000000000,   -0.6249706758,   -0.0000000000,    0.0000000000,   -0.0000000000,    6.1712811347,   -0.0000000000,   -1.1589290125,    0.0000000000,   -0.0000000000,    0.0000000000,    0.0256024508,    0.0000000000,    4.2140927107,    0.0000000000,    0.0000000000,    0.0000000000,   -0.1151931472,    0.0000000000,   -0.0352272009,    0.0000000000,    0.0573119077,    0.0000000000,    0.1620652447,    0.0000000000,   -0.1497436306,    0.0000000000,   -0.0573119077,    0.0000000000,    0.1620652447,    0.0000000000,   -0.1497436306,    0.0000000000 ]
  - [   -0.0000000000,   -0.0000000000,    0.0038100940,   -0.0000000000,    0.1000853786,   -0.0000000000,   -0.0000000000,   -0.0000000000,   -0.0816508514,   -0.0000000000,   -0.7384760438,   -0.0000000000,   -0.0000000000,   -0.0000000000,   -0.5523363760,   -0.0000000000,   -0.1794960210,   -0.0000000000,   -0.0000000000,   -0.0000000000,   -0.1121893526,   -0.0000000000,    0.3167340965,   -0.0000000000,   -0.6493036580,   -0.0000000000,    0.4359917328,   -0.0000000000,   -0.0785928512,   -0.0000000000,    0.6493036580,   -0.0000000000,    0.4359917328,   -0.0000000000,   -0.0785928512,   -0.0000000000,   -0.0000000000,   -0.0000000000,    0.4647923339,   -0.0000000000,  -10.5164715950,   -0.0000000000,    0.0000000000,   -0.0000000000,   -1.1589290125,   -0.0000000000,   42.2965229300,   -0.0000000000,   -0.0000000000,    0.0000000000,   -0.0692632103,    0.0000000000,   -1.1566139404,    0.0000000000,    0.0000000000,    0.0000000000,   -0.0199168139,    0.0000000000,    0.1671900027,    0.0000000000,    0.1532796042,    0.0000000000,   -0.1752176962,    0.0000000000,   -0.2478461009,    0.0000000000,   -0.1532796042,    0.0000000000,   -0.1752176962,    0.0000000000,   -0.2478461009,    0.0000000000 ]