
     Program PHONON v.7.5 starts on 25May2026 at 10: 0:51 

     This program is part of the open-source Quantum ESPRESSO suite
     for quantum simulation of materials; please cite
         "P. Giannozzi et al., J. Phys.:Condens. Matter 21 395502 (2009);
         "P. Giannozzi et al., J. Phys.:Condens. Matter 29 465901 (2017);
         "P. Giannozzi et al., J. Chem. Phys. 152 154105 (2020);
          URL http://www.quantum-espresso.org", 
     in publications or presentations arising from this work. More details at
     http://www.quantum-espresso.org/quote

     Parallel version (MPI), running on     6 processors

     MPI processes distributed on     1 nodes
     32167 MiB available memory on the printing compute node when the environment starts

     Reading input from dielectric_calc_tetra.phi

     Reading xml data from directory:

     ./tmp/dielectric_tetra.save/

     K-points division:     npool     =       3
     R & G space division:  proc/nbgrp/npool/nimage =       2
     Subspace diagonalization in iterative solution of the eigenvalue problem:
     a serial algorithm will be used


     IMPORTANT: XC functional enforced from input :
     Exchange-correlation= PZ
                           (   1   1   0   0   0   0   0)
     Any further DFT definition will be discarded
     Please, verify this is what you really want


     Parallelization info
     --------------------
     sticks:   dense  smooth     PW     G-vecs:    dense   smooth      PW
     Min        2128    2128    568                76874    76874   10585
     Max        2129    2129    569                76877    76877   10586
     Sum        4257    4257   1137               153751   153751   21171

     Using Slab Decomposition

     Reading collected, re-writing distributed wavefunctions in ./tmp/

     Number and degeneracy of irreps per q-point
       N         xq(1)         xq(2)         xq(3)   N irreps
       1   0.000000000   0.000000000   0.000000000      21
        1   1   1   1   2   1   1   1   1   1   1   1   1   2   2   2   2   2
   2   2   2

     Calculation of q =    0.0000000   0.0000000   0.0000000

     Dielectric tensor, Born charges, and Raman — gamma only, no phonons      

     bravais-lattice index     =            0
     lattice parameter (alat)  =      16.3635  a.u.
     unit-cell volume          =    3216.7902 (a.u.)^3
     number of atoms/cell      =           10
     number of atomic types    =            3
     kinetic-energy cut-off    =      50.0000  Ry
     charge density cut-off    =     200.0000  Ry
     convergence threshold     =      1.0E-12
     beta                      =       0.7000
     number of iterations used =            4
     Exchange-correlation= PZ
                           (   1   1   0   0   0   0   0)


     celldm(1)=   16.36349  celldm(2)=    0.00000  celldm(3)=    0.00000
     celldm(4)=    0.00000  celldm(5)=    0.00000  celldm(6)=    0.00000

     crystal axes: (cart. coord. in units of alat)
               a(1) = (  1.0000 -0.0000  0.0000 )  
               a(2) = ( -0.0000  1.0000 -0.0000 )  
               a(3) = (  0.0000 -0.0000  0.7342 )  

     reciprocal axes: (cart. coord. in units 2 pi/alat)
               b(1) = (  1.0000  0.0000 -0.0000 )  
               b(2) = (  0.0000  1.0000  0.0000 )  
               b(3) = ( -0.0000  0.0000  1.3621 )  


     Atoms inside the unit cell: 

     Cartesian axes

     site n.  atom      mass           positions (alat units)
        1  Cs    132.9050   tau(    1) = (   -0.00000    0.50000    0.36708  )
        2  Cs    132.9050   tau(    2) = (    0.50000   -0.00000    0.36708  )
        3  Pb    207.2000   tau(    3) = (    0.50000    0.50000   -0.00000  )
        4  Pb    207.2000   tau(    4) = (   -0.00000    0.00000   -0.00000  )
        5  I     126.9040   tau(    5) = (    0.18718    0.31282   -0.00000  )
        6  I     126.9040   tau(    6) = (    0.81282    0.68718   -0.00000  )
        7  I     126.9040   tau(    7) = (    0.68718    0.18718   -0.00000  )
        8  I     126.9040   tau(    8) = (    0.31282    0.81282   -0.00000  )
        9  I     126.9040   tau(    9) = (    0.50000    0.50000    0.36708  )
       10  I     126.9040   tau(   10) = (   -0.00000   -0.00000    0.36708  )

     Computing dynamical matrix for 
                    q = (   0.0000000   0.0000000   0.0000000 )

     17 Sym.Ops. (with q -> -q+G )


     G cutoff = 1356.5065  (  76877 G-vectors)     FFT grid: ( 80, 80, 60)
     number of k points=     3
                       cart. coord. in units 2pi/alat
        k(    1) = (   0.1250000   0.1250000   0.3405216), wk =   0.5000000
        k(    2) = (   0.1250000   0.3750000   0.3405216), wk =   1.0000000
        k(    3) = (   0.3750000   0.3750000   0.3405216), wk =   0.5000000

     PseudoPot. # 1 for Cs read from file:
     /home/darth-vader/espresso/pseudo/Cs.upf
     MD5 check sum: d01c53d012be9123745781bcb8b00a26
     Pseudo is Norm-conserving + core correction, Zval =  9.0
     Generated using ONCVPSP code by D. R. Hamann
     Using radial grid of 2414 points,  8 beta functions with: 
                l(1) =   0
                l(2) =   0
                l(3) =   1
                l(4) =   1
                l(5) =   2
                l(6) =   2
                l(7) =   3
                l(8) =   3

     PseudoPot. # 2 for Pb read from file:
     /home/darth-vader/espresso/pseudo/Pb.upf
     MD5 check sum: 40989d854e0b57882d9b50c0a8024c6e
     Pseudo is Norm-conserving + core correction, Zval = 14.0
     Generated using ONCVPSP code by D. R. Hamann
     Using radial grid of 1692 points,  8 beta functions with: 
                l(1) =   0
                l(2) =   0
                l(3) =   0
                l(4) =   1
                l(5) =   1
                l(6) =   2
                l(7) =   2
                l(8) =   3

     PseudoPot. # 3 for I  read from file:
     /home/darth-vader/espresso/pseudo/I.upf
     MD5 check sum: 9cb9d574a1900baf8aa34970b08b8049
     Pseudo is Norm-conserving + core correction, Zval =  7.0
     Generated using ONCVPSP code by D. R. Hamann
     Using radial grid of 1188 points,  8 beta functions with: 
                l(1) =   0
                l(2) =   0
                l(3) =   1
                l(4) =   1
                l(5) =   2
                l(6) =   2
                l(7) =   3
                l(8) =   3

     Mode symmetry, D_4h(4/mmm) point group:


     Electric field:
     Dielectric constant
     Born effective charges as d Force / d E
     Raman tensor


     Atomic displacements:
     There are   21 irreducible representations

     Representation     1      1 modes -  To be done

     Representation     2      1 modes -  To be done

     Representation     3      1 modes -  To be done

     Representation     4      1 modes -  To be done

     Representation     5      2 modes -  To be done

     Representation     6      1 modes -  To be done

     Representation     7      1 modes -  To be done

     Representation     8      1 modes -  To be done

     Representation     9      1 modes -  To be done

     Representation    10      1 modes -  To be done

     Representation    11      1 modes -  To be done

     Representation    12      1 modes -  To be done

     Representation    13      1 modes -  To be done

     Representation    14      2 modes -  To be done

     Representation    15      2 modes -  To be done

     Representation    16      2 modes -  To be done

     Representation    17      2 modes -  To be done

     Representation    18      2 modes -  To be done

     Representation    19      2 modes -  To be done

     Representation    20      2 modes -  To be done

     Representation    21      2 modes -  To be done


     PHONON       :      1.31s CPU      1.36s WALL


     Electric Fields Calculation

      iter #   1 total cpu time :    85.6 secs   av.it.:   8.0
      thresh= 1.000E-02 alpha_mix =  0.700 |ddv_scf|^2 =  7.657E-08

      iter #   2 total cpu time :   119.7 secs   av.it.:  18.9
      thresh= 2.767E-05 alpha_mix =  0.700 |ddv_scf|^2 =  5.811E-08

      iter #   3 total cpu time :   151.8 secs   av.it.:  17.6
      thresh= 2.411E-05 alpha_mix =  0.700 |ddv_scf|^2 =  3.818E-09

      iter #   4 total cpu time :   184.2 secs   av.it.:  17.3
      thresh= 6.179E-06 alpha_mix =  0.700 |ddv_scf|^2 =  9.979E-11

      iter #   5 total cpu time :   215.9 secs   av.it.:  17.3
      thresh= 9.990E-07 alpha_mix =  0.700 |ddv_scf|^2 =  2.052E-11

      iter #   6 total cpu time :   246.6 secs   av.it.:  17.0
      thresh= 4.530E-07 alpha_mix =  0.700 |ddv_scf|^2 =  4.230E-13

     End of electric fields calculation

          Dielectric constant in cartesian axis 

          (       4.728646193       0.000000000      -0.000000000 )
          (       0.000000000       4.728646193       0.000000000 )
          (      -0.000000000       0.000000000       3.417354775 )

          Effective charges (d Force / dE) in cartesian axis without acoustic sum rule applied (asr)

           atom    1  Cs    Mean Z*:        1.35377
      Ex  (        1.29950       -0.13831        0.00000 )
      Ey  (       -0.13831        1.29950       -0.00000 )
      Ez  (        0.00000       -0.00000        1.46231 )
           atom    2  Cs    Mean Z*:        1.35377
      Ex  (        1.29950        0.13831        0.00000 )
      Ey  (        0.13831        1.29950       -0.00000 )
      Ez  (        0.00000       -0.00000        1.46231 )
           atom    3  Pb    Mean Z*:        3.50995
      Ex  (        3.69295       -0.53532        0.00000 )
      Ey  (        0.53532        3.69295       -0.00000 )
      Ez  (        0.00000       -0.00000        3.14396 )
           atom    4  Pb    Mean Z*:        3.50995
      Ex  (        3.69295        0.53532        0.00000 )
      Ey  (       -0.53532        3.69295       -0.00000 )
      Ez  (        0.00000       -0.00000        3.14396 )
           atom    5  I     Mean Z*:       -1.67149
      Ex  (       -2.06333       -1.18387       -0.00000 )
      Ey  (       -1.18387       -2.06333       -0.00000 )
      Ez  (       -0.00000       -0.00000       -0.88781 )
           atom    6  I     Mean Z*:       -1.67149
      Ex  (       -2.06333       -1.18387       -0.00000 )
      Ey  (       -1.18387       -2.06333       -0.00000 )
      Ez  (       -0.00000       -0.00000       -0.88781 )
           atom    7  I     Mean Z*:       -1.67149
      Ex  (       -2.06333        1.18387        0.00000 )
      Ey  (        1.18387       -2.06333       -0.00000 )
      Ez  (        0.00000       -0.00000       -0.88781 )
           atom    8  I     Mean Z*:       -1.67149
      Ex  (       -2.06333        1.18387        0.00000 )
      Ey  (        1.18387       -2.06333       -0.00000 )
      Ez  (        0.00000       -0.00000       -0.88781 )
           atom    9  I     Mean Z*:       -0.82517
      Ex  (       -0.82998        0.04964        0.00000 )
      Ey  (       -0.04964       -0.82998       -0.00000 )
      Ez  (        0.00000       -0.00000       -0.81554 )
           atom   10  I     Mean Z*:       -0.82517
      Ex  (       -0.82998       -0.04964        0.00000 )
      Ey  (        0.04964       -0.82998       -0.00000 )
      Ez  (        0.00000       -0.00000       -0.81554 )

          Effective charges Sum: Mean:        1.39113
              0.07159       -0.00000        0.00000
             -0.00000        0.07159       -0.00000
              0.00000       -0.00000        4.03022

          Effective charges (d Force / dE) in cartesian axis with asr applied: 
           atom    1  Cs    Mean Z*:        1.21466
      E*x (        1.29234       -0.13831       -0.00000 )
      E*y (       -0.13831        1.29234        0.00000 )
      E*z (       -0.00000        0.00000        1.05929 )
           atom    2  Cs    Mean Z*:        1.21466
      E*x (        1.29234        0.13831        0.00000 )
      E*y (        0.13831        1.29234        0.00000 )
      E*z (        0.00000        0.00000        1.05929 )
           atom    3  Pb    Mean Z*:        3.37084
      E*x (        3.68579       -0.53532       -0.00000 )
      E*y (        0.53532        3.68579       -0.00000 )
      E*z (        0.00000       -0.00000        2.74094 )
           atom    4  Pb    Mean Z*:        3.37084
      E*x (        3.68579        0.53532        0.00000 )
      E*y (       -0.53532        3.68579       -0.00000 )
      E*z (       -0.00000       -0.00000        2.74094 )
           atom    5  I     Mean Z*:       -1.81061
      E*x (       -2.07049       -1.18387       -0.00000 )
      E*y (       -1.18387       -2.07049        0.00000 )
      E*z (       -0.00000        0.00000       -1.29084 )
           atom    6  I     Mean Z*:       -1.81061
      E*x (       -2.07049       -1.18387       -0.00000 )
      E*y (       -1.18387       -2.07049        0.00000 )
      E*z (       -0.00000        0.00000       -1.29084 )
           atom    7  I     Mean Z*:       -1.81061
      E*x (       -2.07049        1.18387        0.00000 )
      E*y (        1.18387       -2.07049        0.00000 )
      E*z (        0.00000        0.00000       -1.29084 )
           atom    8  I     Mean Z*:       -1.81061
      E*x (       -2.07049        1.18387        0.00000 )
      E*y (        1.18387       -2.07049        0.00000 )
      E*z (        0.00000        0.00000       -1.29084 )
           atom    9  I     Mean Z*:       -0.96428
      E*x (       -0.83714        0.04964       -0.00000 )
      E*y (       -0.04964       -0.83714        0.00000 )
      E*z (       -0.00000        0.00000       -1.21856 )
           atom   10  I     Mean Z*:       -0.96428
      E*x (       -0.83714       -0.04964       -0.00000 )
      E*y (        0.04964       -0.83714        0.00000 )
      E*z (       -0.00000        0.00000       -1.21856 )

     Calling punch_plot_e
     Writing on file  drho                                                                                                                                                                                                                                                            

     Computing Pc [DH,Drho] |psi> 

     Derivative coefficient:  0.001000    Threshold: 1.00E-12
     Non-scf  u_k: avg # of iterations = 23.1
     Non-scf Du_k: avg # of iterations = 55.1

          Dielectric constant from finite-differences

          (      -9.235629844      -0.000000000       0.000000000 )
          (      -0.000000000      -9.235629844      -0.000000000 )
          (       0.000000000      -0.000000000      -7.897338011 )

     Computing Second order response 


      iter #   1   av.it.:  18.5
      thresh= 1.000E-02 alpha_mix =  0.700 |ddv_scf|^2 =  4.823E-04


      iter #   2   av.it.:  18.3
      thresh= 2.196E-03 alpha_mix =  0.700 |ddv_scf|^2 =  2.630E-04


      iter #   3   av.it.:  16.8
      thresh= 1.622E-03 alpha_mix =  0.700 |ddv_scf|^2 =  9.296E-06


      iter #   4   av.it.:  17.3
      thresh= 3.049E-04 alpha_mix =  0.700 |ddv_scf|^2 =  6.561E-07


      iter #   5   av.it.:  18.0
      thresh= 8.100E-05 alpha_mix =  0.700 |ddv_scf|^2 =  2.858E-08


      iter #   6   av.it.:  17.8
      thresh= 1.690E-05 alpha_mix =  0.700 |ddv_scf|^2 =  2.442E-09


      iter #   7   av.it.:  18.5
      thresh= 4.942E-06 alpha_mix =  0.700 |ddv_scf|^2 =  9.498E-11


      iter #   8   av.it.:  18.2
      thresh= 9.746E-07 alpha_mix =  0.700 |ddv_scf|^2 =  1.533E-11


      iter #   9   av.it.:  17.0
      thresh= 3.915E-07 alpha_mix =  0.700 |ddv_scf|^2 =  3.233E-13

          Raman tensor (au^-1) in cartesian axis 

           atom      1
          (      -0.000000000       0.000000000       0.000000000 )
          (       0.000000000       0.000000000       0.000000000 )
          (       0.000000000       0.000000000       0.000000000 )

          (       0.000000000      -0.000000000      -0.000000000 )
          (      -0.000000000       0.000000000       0.000000000 )
          (      -0.000000000       0.000000000       0.000000000 )

          (      -0.000000000      -0.000000000      -0.000000000 )
          (      -0.000000000      -0.000000000      -0.000000000 )
          (      -0.000000000      -0.000000000       0.000000000 )

           atom      2
          (      -0.000000000       0.000000000       0.000000000 )
          (       0.000000000      -0.000000000      -0.000000000 )
          (       0.000000000      -0.000000000      -0.000000000 )

          (       0.000000000      -0.000000000      -0.000000000 )
          (      -0.000000000      -0.000000000      -0.000000000 )
          (      -0.000000000      -0.000000000      -0.000000000 )

          (       0.000000000       0.000000000      -0.000000000 )
          (       0.000000000       0.000000000      -0.000000000 )
          (      -0.000000000      -0.000000000      -0.000000000 )

           atom      3
          (      -0.000000000       0.000000000       0.000000000 )
          (       0.000000000       0.000000000      -0.000000000 )
          (       0.000000000      -0.000000000      -0.000000000 )

          (       0.000000000       0.000000000      -0.000000000 )
          (       0.000000000      -0.000000000      -0.000000000 )
          (      -0.000000000      -0.000000000      -0.000000000 )

          (       0.000000000       0.000000000      -0.000000000 )
          (       0.000000000      -0.000000000      -0.000000000 )
          (      -0.000000000      -0.000000000       0.000000000 )

           atom      4
          (       0.000000000      -0.000000000      -0.000000000 )
          (      -0.000000000       0.000000000       0.000000000 )
          (      -0.000000000       0.000000000       0.000000000 )

          (      -0.000000000       0.000000000       0.000000000 )
          (       0.000000000       0.000000000       0.000000000 )
          (       0.000000000       0.000000000      -0.000000000 )

          (      -0.000000000      -0.000000000       0.000000000 )
          (      -0.000000000       0.000000000      -0.000000000 )
          (       0.000000000      -0.000000000      -0.000000000 )

           atom      5
          (      -0.396058960       1.822878996       0.000000000 )
          (       1.822878996       2.220513847       0.000000000 )
          (       0.000000000       0.000000000      -0.605128040 )

          (      -2.220513847      -1.822878996       0.000000000 )
          (      -1.822878996       0.396058960      -0.000000000 )
          (       0.000000000      -0.000000000       0.605128040 )

          (      -0.000000000       0.000000000       2.075159179 )
          (       0.000000000      -0.000000000      -2.075159179 )
          (       2.075159179      -2.075159179      -0.000000000 )

           atom      6
          (       0.396058960      -1.822878996      -0.000000000 )
          (      -1.822878996      -2.220513847      -0.000000000 )
          (      -0.000000000      -0.000000000       0.605128040 )

          (       2.220513847       1.822878996      -0.000000000 )
          (       1.822878996      -0.396058960       0.000000000 )
          (      -0.000000000       0.000000000      -0.605128040 )

          (       0.000000000      -0.000000000      -2.075159179 )
          (      -0.000000000       0.000000000       2.075159179 )
          (      -2.075159179       2.075159179       0.000000000 )

           atom      7
          (      -0.396058960      -1.822878996      -0.000000000 )
          (      -1.822878996       2.220513847       0.000000000 )
          (      -0.000000000       0.000000000      -0.605128040 )

          (       2.220513847      -1.822878996       0.000000000 )
          (      -1.822878996      -0.396058960       0.000000000 )
          (       0.000000000       0.000000000      -0.605128040 )

          (       0.000000000       0.000000000       2.075159179 )
          (       0.000000000       0.000000000       2.075159179 )
          (       2.075159179       2.075159179       0.000000000 )

           atom      8
          (       0.396058960       1.822878996       0.000000000 )
          (       1.822878996      -2.220513847      -0.000000000 )
          (       0.000000000      -0.000000000       0.605128040 )

          (      -2.220513847       1.822878996      -0.000000000 )
          (       1.822878996       0.396058960      -0.000000000 )
          (      -0.000000000      -0.000000000       0.605128040 )

          (      -0.000000000      -0.000000000      -2.075159179 )
          (      -0.000000000      -0.000000000      -2.075159179 )
          (      -2.075159179      -2.075159179      -0.000000000 )

           atom      9
          (       0.000000000      -0.000000000      -0.000000000 )
          (      -0.000000000      -0.000000000      -0.000000000 )
          (      -0.000000000      -0.000000000       0.000000000 )

          (       0.000000000      -0.000000000      -0.000000000 )
          (      -0.000000000      -0.000000000      -0.000000000 )
          (      -0.000000000      -0.000000000      -0.000000000 )

          (      -0.000000000      -0.000000000      -0.000000000 )
          (      -0.000000000       0.000000000       0.000000000 )
          (      -0.000000000       0.000000000      -0.000000000 )

           atom     10
          (       0.000000000      -0.000000000      -0.000000000 )
          (      -0.000000000      -0.000000000      -0.000000000 )
          (      -0.000000000      -0.000000000      -0.000000000 )

          (       0.000000000      -0.000000000      -0.000000000 )
          (      -0.000000000       0.000000000       0.000000000 )
          (      -0.000000000       0.000000000       0.000000000 )

          (       0.000000000      -0.000000000      -0.000000000 )
          (      -0.000000000       0.000000000       0.000000000 )
          (      -0.000000000       0.000000000       0.000000000 )


     Raman tensor (A^2)

     atom #    1    pol.  1
     -0.447697293281E-36      0.693184642430E-35      0.969173248560E-20
      0.693184642430E-35      0.770039344444E-35      0.516892399232E-20
      0.969173248560E-20      0.516892399232E-20      0.686697988808E-35
     atom #    1    pol.  2
      0.238771889750E-36     -0.388004320844E-35     -0.516892399232E-20
     -0.388004320844E-35      0.188032863178E-35      0.516892399232E-20
     -0.516892399232E-20      0.516892399232E-20      0.791448786193E-35
     atom #    1    pol.  3
     -0.854221033897E-48     -0.813913679185E-34     -0.404848364910E-35
     -0.813913679185E-34     -0.775338598848E-20     -0.192365804495E-35
     -0.404848364910E-35     -0.192365804495E-35      0.149840612331E-21
     atom #    2    pol.  1
     -0.507390265719E-36      0.211910052153E-35      0.258446199616E-20
      0.211910052153E-35     -0.150426290542E-34     -0.103378479846E-19
      0.258446199616E-20     -0.103378479846E-19     -0.151231003197E-34
     atom #    2    pol.  2
      0.123415220515E-34     -0.161171025581E-35     -0.258446199616E-20
     -0.161171025581E-35     -0.169229576860E-34     -0.116300789827E-19
     -0.258446199616E-20     -0.116300789827E-19     -0.166679331480E-34
     atom #    2    pol.  3
      0.167990029750E-19      0.176735968144E-33     -0.247986322446E-35
      0.176735968144E-33      0.184760055136E-47     -0.809004560111E-35
     -0.247986322446E-35     -0.809004560111E-35     -0.115681577662E-49
     atom #    3    pol.  1
     -0.596929724375E-36      0.749892966246E-35      0.103378479846E-19
      0.749892966246E-35      0.119385944875E-36     -0.108283052002E-33
      0.103378479846E-19     -0.108283052002E-33     -0.871950234678E-36
     atom #    3    pol.  2
      0.376065726356E-35      0.118266701642E-35     -0.108283052002E-33
      0.118266701642E-35     -0.338459153721E-34     -0.206756959693E-19
     -0.108283052002E-33     -0.206756959693E-19     -0.229439020065E-34
     atom #    3    pol.  3
      0.516892399232E-20      0.969173248560E-21     -0.806345566512E-38
      0.969173248560E-21     -0.516892399232E-20     -0.117540273748E-34
     -0.806345566512E-38     -0.117540273748E-34      0.958979918916E-20
     atom #    4    pol.  1
      0.955087559000E-36     -0.133413793398E-34     -0.180912339731E-19
     -0.133413793398E-34      0.111635185485E-34      0.775338598848E-20
     -0.180912339731E-19      0.775338598848E-20      0.130231455477E-34
     atom #    4    pol.  2
     -0.423820104306E-35      0.737208209603E-35      0.103378479846E-19
      0.737208209603E-35      0.131329202876E-34      0.646115499040E-20
      0.103378479846E-19      0.646115499040E-20     -0.122313639735E-34
     atom #    4    pol.  3
     -0.516892399232E-20     -0.543299319451E-36      0.887648900841E-35
     -0.543299319451E-36      0.512854177363E-20     -0.127890791146E-34
      0.887648900841E-35     -0.127890791146E-34     -0.287693975675E-19
     atom #    5    pol.  1
     -0.283906270415E+02      0.130669124886E+03      0.930086640201E-13
      0.130669124886E+03      0.159172716196E+03      0.827596630669E-13
      0.930086640201E-13      0.827596630669E-13     -0.433772903050E+02
     atom #    5    pol.  2
     -0.159172716196E+03     -0.130669124886E+03      0.175125963488E-13
     -0.130669124886E+03      0.283906270415E+02     -0.520127528138E-13
      0.175125963488E-13     -0.520127528138E-13      0.433772903050E+02
     atom #    5    pol.  3
     -0.121152236294E-12      0.128318066918E-13      0.148753282282E+03
      0.128318066918E-13     -0.200831312803E-12     -0.148753282282E+03
      0.148753282282E+03     -0.148753282282E+03     -0.191877334350E-12
     atom #    6    pol.  1
      0.283906270415E+02     -0.130669124886E+03     -0.930086640201E-13
     -0.130669124886E+03     -0.159172716196E+03     -0.831195855823E-13
     -0.930086640201E-13     -0.831195855823E-13      0.433772903050E+02
     atom #    6    pol.  2
      0.159172716196E+03      0.130669124886E+03     -0.178513469516E-13
      0.130669124886E+03     -0.283906270415E+02      0.520127528138E-13
     -0.178513469516E-13      0.520127528138E-13     -0.433772903050E+02
     atom #    6    pol.  3
      0.121152236294E-12     -0.131705572946E-13     -0.148753282282E+03
     -0.131705572946E-13      0.200831312803E-12      0.148753282282E+03
     -0.148753282282E+03      0.148753282282E+03      0.191877334350E-12
     atom #    7    pol.  1
     -0.283906270415E+02     -0.130669124886E+03     -0.960900401318E-13
     -0.130669124886E+03      0.159172716196E+03      0.842898378545E-13
     -0.960900401318E-13      0.842898378545E-13     -0.433772903050E+02
     atom #    7    pol.  2
      0.159172716196E+03     -0.130669124886E+03      0.100093564688E-13
     -0.130669124886E+03     -0.283906270415E+02      0.602344356030E-13
      0.100093564688E-13      0.602344356030E-13     -0.433772903050E+02
     atom #    7    pol.  3
      0.109110944348E-12      0.140973325710E-13      0.148753282282E+03
      0.140973325710E-13      0.190900875745E-12      0.148753282282E+03
      0.148753282282E+03      0.148753282282E+03      0.175917016351E-12
     atom #    8    pol.  1
      0.283906270415E+02      0.130669124886E+03      0.960900401318E-13
      0.130669124886E+03     -0.159172716196E+03     -0.842898378545E-13
      0.960900401318E-13     -0.842898378545E-13      0.433772903050E+02
     atom #    8    pol.  2
     -0.159172716196E+03      0.130669124886E+03     -0.933185526331E-14
      0.130669124886E+03      0.283906270415E+02     -0.602344356030E-13
     -0.933185526331E-14     -0.602344356030E-13      0.433772903050E+02
     atom #    8    pol.  3
     -0.109110944348E-12     -0.146054584752E-13     -0.148753282282E+03
     -0.146054584752E-13     -0.190900875745E-12     -0.148753282282E+03
     -0.148753282282E+03     -0.148753282282E+03     -0.175858096624E-12
     atom #    9    pol.  1
      0.596929724375E-37     -0.936433505113E-36     -0.129223099808E-20
     -0.936433505113E-36     -0.149232431094E-37     -0.203776884658E-34
     -0.129223099808E-20     -0.203776884658E-34      0.813069909659E-37
     atom #    9    pol.  2
      0.895394586562E-37     -0.151284377021E-35     -0.193834649712E-20
     -0.151284377021E-35     -0.470082157945E-36     -0.646115499040E-21
     -0.193834649712E-20     -0.646115499040E-21     -0.813069909659E-36
     atom #    9    pol.  3
     -0.339130699660E-35     -0.161528874760E-21     -0.147877089819E-35
     -0.161528874760E-21      0.646115499040E-21      0.508168693535E-38
     -0.147877089819E-35      0.508168693535E-38     -0.245239828819E-51
     atom #   10    pol.  1
      0.179078917312E-36     -0.279064646145E-35     -0.387669299424E-20
     -0.279064646145E-35     -0.188032863178E-35     -0.129223099808E-20
     -0.387669299424E-20     -0.129223099808E-20     -0.173688697279E-35
     atom #   10    pol.  2
      0.238771889750E-36     -0.388004320844E-35     -0.516892399232E-20
     -0.388004320844E-35      0.752131452712E-35      0.516892399232E-20
     -0.516892399232E-20      0.516892399232E-20      0.112940064672E-34
     atom #   10    pol.  3
      0.169694276342E-51     -0.280029602443E-50     -0.372890825146E-35
     -0.280029602443E-50      0.803950383850E-50      0.726931041439E-35
     -0.372890825146E-35      0.726931041439E-35      0.479489959458E-20

     PHONON       :  34m34.99s CPU  34m46.97s WALL

     INITIALIZATION: 
     phq_setup    :      0.01s CPU      0.01s WALL (       1 calls)
     phq_init     :      1.01s CPU      1.03s WALL (       1 calls)

     phq_init     :      1.01s CPU      1.03s WALL (       1 calls)
     set_drhoc    :      0.00s CPU      0.00s WALL (       1 calls)
     init_vloc    :      0.01s CPU      0.01s WALL (       1 calls)
     init_us_1    :      0.00s CPU      0.00s WALL (       1 calls)
     init_us_2    :      0.46s CPU      0.49s WALL (      27 calls)

     DIELECTRIC CONSTANT AND EFFECTIVE CHARGES:
     solve_e      :    242.96s CPU    245.29s WALL (       1 calls)
     dielec       :      0.02s CPU      0.03s WALL (       1 calls)
     zstar_eu     :     10.77s CPU     10.89s WALL (       1 calls)

     RAMAN COEFFICIENTS, THIRD-ORDER CHI:
     dhdrhopsi    :   1111.50s CPU   1116.40s WALL (       1 calls)
     dvpsi_e2     :      7.03s CPU      7.17s WALL (       1 calls)
     solve_e2     :    575.65s CPU    579.68s WALL (       1 calls)
     psymdvscf    :      0.66s CPU      0.72s WALL (       6 calls)
     com_dvloc    :      0.57s CPU      0.59s WALL (     150 calls)
                                        0.00s GPU  (     150 calls)
     addcore      :      0.10s CPU      0.10s WALL (      30 calls)
                                        0.00s GPU  (      30 calls)

     dvqpsi_us    :     46.54s CPU     46.83s WALL (     150 calls)
                                        0.00s GPU  (     150 calls)
     dvqpsi_us_on :     37.55s CPU     37.58s WALL (     150 calls)

     add_vuspsi   :    718.58s CPU    718.77s WALL (    9332 calls)


      General routines
     calbec       :    945.12s CPU    945.75s WALL (   15292 calls)
     fft          :      0.65s CPU      0.67s WALL (     307 calls)
     ffts         :      0.28s CPU      0.30s WALL (     150 calls)
     fftw         :    153.06s CPU    157.42s WALL (  314388 calls)
     davcio       :      0.07s CPU      0.86s WALL (     524 calls)
     write_rec    :      0.01s CPU      0.13s WALL (      15 calls)

      Additional routines
     ch_psi       :   1739.27s CPU   1746.15s WALL (    3757 calls)
     last         :     98.97s CPU     99.08s WALL (    3757 calls)
     Hesh         :      3.18s CPU      3.19s WALL (    3757 calls)
     ch_psi_all_k :     95.74s CPU     95.81s WALL (    3757 calls)
                                        0.00s GPU  (    3757 calls)
     h_psi_bgrp   :   1712.57s CPU   1718.50s WALL (    9332 calls)
     h_psi        :   1712.56s CPU   1718.49s WALL (    9332 calls)
     h_psi:pot    :   1708.69s CPU   1714.61s WALL (    9332 calls)
     h_psi:calbec :    815.63s CPU    816.13s WALL (    9332 calls)
     s_psi_bgrp   :      3.68s CPU      3.69s WALL (   18691 calls)


     PHONON       :  34m34.99s CPU  34m46.97s WALL


   This run was terminated on:  10:35:38  25May2026            

=------------------------------------------------------------------------------=
   JOB DONE.
=------------------------------------------------------------------------------=
