   1   16
1 1
     0.164084940000000    -0.000000000000000    -0.000000000000000
    -0.000000000000000     0.164084940000000    -0.000000000000000
    -0.000000000000000    -0.000000000000000     0.164084940000000
1 2
    -0.041092060000000    -0.000000000000000    -0.000000000000000
    -0.000000000000000     0.003393440000000    -0.000000000000000
    -0.000000000000000    -0.000000000000000     0.003393440000000
1 3
     0.003393440000000    -0.000000000000000    -0.000000000000000
    -0.000000000000000    -0.041092060000000    -0.000000000000000
    -0.000000000000000    -0.000000000000000     0.003393440000000
1 4
    -0.013892065000000    -0.000000000000000    -0.000000000000000
    -0.000000000000000    -0.013892065000000    -0.000000000000000
    -0.000000000000000    -0.000000000000000     0.046101935000000
1 5
     0.003393440000000    -0.000000000000000    -0.000000000000000
    -0.000000000000000     0.003393440000000    -0.000000000000000
    -0.000000000000000    -0.000000000000000    -0.041092060000000
1 6
    -0.013892065000000    -0.000000000000000    -0.000000000000000
    -0.000000000000000     0.046101935000000    -0.000000000000000
    -0.000000000000000    -0.000000000000000    -0.013892065000000
1 7
     0.046101935000000    -0.000000000000000    -0.000000000000000
    -0.000000000000000    -0.013892065000000    -0.000000000000000
    -0.000000000000000    -0.000000000000000    -0.013892065000000
1 8
     0.018112935000000    -0.000000000000000    -0.000000000000000
    -0.000000000000000     0.018112935000000    -0.000000000000000
    -0.000000000000000    -0.000000000000000     0.018112935000000
1 9
    -0.020776312500000    -0.005379000000000    -0.005379000000000
    -0.005379000000000    -0.020776312500000    -0.005379000000000
    -0.005379000000000    -0.005379000000000    -0.020776312500000
1 10
    -0.020776312500000     0.005379000000000     0.005379000000000
     0.005379000000000    -0.020776312500000    -0.005379000000000
     0.005379000000000    -0.005379000000000    -0.020776312500000
1 11
    -0.020776312500000     0.005379000000000    -0.005379000000000
     0.005379000000000    -0.020776312500000     0.005379000000000
    -0.005379000000000     0.005379000000000    -0.020776312500000
1 12
    -0.020776312500000    -0.005379000000000     0.005379000000000
    -0.005379000000000    -0.020776312500000     0.005379000000000
     0.005379000000000     0.005379000000000    -0.020776312500000
1 13
    -0.020776312500000    -0.005379000000000     0.005379000000000
    -0.005379000000000    -0.020776312500000     0.005379000000000
     0.005379000000000     0.005379000000000    -0.020776312500000
1 14
    -0.020776312500000     0.005379000000000    -0.005379000000000
     0.005379000000000    -0.020776312500000     0.005379000000000
    -0.005379000000000     0.005379000000000    -0.020776312500000
1 15
    -0.020776312500000     0.005379000000000     0.005379000000000
     0.005379000000000    -0.020776312500000    -0.005379000000000
     0.005379000000000    -0.005379000000000    -0.020776312500000
1 16
    -0.020776312500000    -0.005379000000000    -0.005379000000000
    -0.005379000000000    -0.020776312500000    -0.005379000000000
    -0.005379000000000    -0.005379000000000    -0.020776312500000