phonopy:
  version: 2.11.0
  calculator: qe
  frequency_unit_conversion_factor: 108.970772
  symmetry_tolerance: 1.00000e-05
  configuration:
    write_force_constants: ".true."

physical_unit:
  atomic_mass: "AMU"
  length: "au"
  force_constants: "Ry/au^2"

space_group:
  type: "Im-3m"
  number: 229
  Hall_symbol: "-I 4 2 3"

primitive_matrix:
- [ -0.500000000000000,  0.500000000000000,  0.500000000000000 ]
- [  0.500000000000000, -0.500000000000000,  0.500000000000000 ]
- [  0.500000000000000,  0.500000000000000, -0.500000000000000 ]

supercell_matrix:
- [   2,   0,   0 ]
- [   0,   2,   0 ]
- [   0,   0,   2 ]

primitive_cell:
  lattice:
  - [    -3.099648935000001,     3.099648934999999,     3.099648935000001 ] # a
  - [     3.099648935000001,    -3.099648934999999,     3.099648935000001 ] # b
  - [     3.099648935000001,     3.099648934999999,    -3.099648935000001 ] # c
  points:
  - symbol: Nb # 1
    coordinates: [  0.000000000000000,  0.000000000000000,  0.000000000000000 ]
    mass: 92.906380
  reciprocal_lattice: # without 2pi
  - [    -0.000000000000000,     0.161308590258142,     0.161308590258142 ] # a*
  - [     0.161308590258142,     0.000000000000000,     0.161308590258142 ] # b*
  - [     0.161308590258142,     0.161308590258142,     0.000000000000000 ] # c*

unit_cell:
  lattice:
  - [     6.199297870000000,     0.000000000000000,     0.000000000000000 ] # a
  - [     0.000000000000000,     6.199297870000000,     0.000000000000000 ] # b
  - [     0.000000000000000,     0.000000000000000,     6.199297870000000 ] # c
  points:
  - symbol: Nb # 1
    coordinates: [  0.000000000000000,  0.000000000000000,  0.000000000000000 ]
    mass: 92.906380
    reduced_to: 1
  - symbol: Nb # 2
    coordinates: [  0.500000000000000,  0.500000000000000,  0.500000000000000 ]
    mass: 92.906380
    reduced_to: 1

supercell:
  lattice:
  - [    12.398595739999999,     0.000000000000000,     0.000000000000000 ] # a
  - [     0.000000000000000,    12.398595739999999,     0.000000000000000 ] # b
  - [     0.000000000000000,     0.000000000000000,    12.398595739999999 ] # c
  points:
  - symbol: Nb # 1
    coordinates: [  0.000000000000000,  0.000000000000000,  0.000000000000000 ]
    mass: 92.906380
    reduced_to: 1
  - symbol: Nb # 2
    coordinates: [  0.500000000000000,  0.000000000000000,  0.000000000000000 ]
    mass: 92.906380
    reduced_to: 1
  - symbol: Nb # 3
    coordinates: [  0.000000000000000,  0.500000000000000,  0.000000000000000 ]
    mass: 92.906380
    reduced_to: 1
  - symbol: Nb # 4
    coordinates: [  0.500000000000000,  0.500000000000000,  0.000000000000000 ]
    mass: 92.906380
    reduced_to: 1
  - symbol: Nb # 5
    coordinates: [  0.000000000000000,  0.000000000000000,  0.500000000000000 ]
    mass: 92.906380
    reduced_to: 1
  - symbol: Nb # 6
    coordinates: [  0.500000000000000,  0.000000000000000,  0.500000000000000 ]
    mass: 92.906380
    reduced_to: 1
  - symbol: Nb # 7
    coordinates: [  0.000000000000000,  0.500000000000000,  0.500000000000000 ]
    mass: 92.906380
    reduced_to: 1
  - symbol: Nb # 8
    coordinates: [  0.500000000000000,  0.500000000000000,  0.500000000000000 ]
    mass: 92.906380
    reduced_to: 1
  - symbol: Nb # 9
    coordinates: [  0.250000000000000,  0.250000000000000,  0.250000000000000 ]
    mass: 92.906380
    reduced_to: 1
  - symbol: Nb # 10
    coordinates: [  0.750000000000000,  0.250000000000000,  0.250000000000000 ]
    mass: 92.906380
    reduced_to: 1
  - symbol: Nb # 11
    coordinates: [  0.250000000000000,  0.750000000000000,  0.250000000000000 ]
    mass: 92.906380
    reduced_to: 1
  - symbol: Nb # 12
    coordinates: [  0.750000000000000,  0.750000000000000,  0.250000000000000 ]
    mass: 92.906380
    reduced_to: 1
  - symbol: Nb # 13
    coordinates: [  0.250000000000000,  0.250000000000000,  0.750000000000000 ]
    mass: 92.906380
    reduced_to: 1
  - symbol: Nb # 14
    coordinates: [  0.750000000000000,  0.250000000000000,  0.750000000000000 ]
    mass: 92.906380
    reduced_to: 1
  - symbol: Nb # 15
    coordinates: [  0.250000000000000,  0.750000000000000,  0.750000000000000 ]
    mass: 92.906380
    reduced_to: 1
  - symbol: Nb # 16
    coordinates: [  0.750000000000000,  0.750000000000000,  0.750000000000000 ]
    mass: 92.906380
    reduced_to: 1
